
Predictions were generated on 29-Apr-2025 at 14:37:21 using BeamDyn




Time	TipTDxr             	TipTDyr             	TipTDzr             	TipRDxr             	TipRDyr             	TipRDzr             	RootFxr             	RootFyr             	RootFzr             	RootMxr             	RootMyr             	RootMzr             	N001_FxL            	N002_FxL            	N003_FxL            	N004_FxL            	N005_FxL            	N006_FxL            	N007_FxL            	N008_FxL            	N009_FxL            	N010_FxL            	N011_FxL            	N012_FxL            	N013_FxL            	N014_FxL            	N015_FxL            	N016_FxL            	N017_FxL            	N018_FxL            	N019_FxL            	N020_FxL            	N021_FxL            	N022_FxL            	N023_FxL            	N024_FxL            	N025_FxL            	N026_FxL            	N027_FxL            	N028_FxL            	N029_FxL            	N030_FxL            	N001_FyL            	N002_FyL            	N003_FyL            	N004_FyL            	N005_FyL            	N006_FyL            	N007_FyL            	N008_FyL            	N009_FyL            	N010_FyL            	N011_FyL            	N012_FyL            	N013_FyL            	N014_FyL            	N015_FyL            	N016_FyL            	N017_FyL            	N018_FyL            	N019_FyL            	N020_FyL            	N021_FyL            	N022_FyL            	N023_FyL            	N024_FyL            	N025_FyL            	N026_FyL            	N027_FyL            	N028_FyL            	N029_FyL            	N030_FyL            	N001_FzL            	N002_FzL            	N003_FzL            	N004_FzL            	N005_FzL            	N006_FzL            	N007_FzL            	N008_FzL            	N009_FzL            	N010_FzL            	N011_FzL            	N012_FzL            	N013_FzL            	N014_FzL            	N015_FzL            	N016_FzL            	N017_FzL            	N018_FzL            	N019_FzL            	N020_FzL            	N021_FzL            	N022_FzL            	N023_FzL            	N024_FzL            	N025_FzL            	N026_FzL            	N027_FzL            	N028_FzL            	N029_FzL            	N030_FzL            	N001_Fxr            	N002_Fxr            	N003_Fxr            	N004_Fxr            	N005_Fxr            	N006_Fxr            	N007_Fxr            	N008_Fxr            	N009_Fxr            	N010_Fxr            	N011_Fxr            	N012_Fxr            	N013_Fxr            	N014_Fxr            	N015_Fxr            	N016_Fxr            	N017_Fxr            	N018_Fxr            	N019_Fxr            	N020_Fxr            	N021_Fxr            	N022_Fxr            	N023_Fxr            	N024_Fxr            	N025_Fxr            	N026_Fxr            	N027_Fxr            	N028_Fxr            	N029_Fxr            	N030_Fxr            	N001_Fyr            	N002_Fyr            	N003_Fyr            	N004_Fyr            	N005_Fyr            	N006_Fyr            	N007_Fyr            	N008_Fyr            	N009_Fyr            	N010_Fyr            	N011_Fyr            	N012_Fyr            	N013_Fyr            	N014_Fyr            	N015_Fyr            	N016_Fyr            	N017_Fyr            	N018_Fyr            	N019_Fyr            	N020_Fyr            	N021_Fyr            	N022_Fyr            	N023_Fyr            	N024_Fyr            	N025_Fyr            	N026_Fyr            	N027_Fyr            	N028_Fyr            	N029_Fyr            	N030_Fyr            	N001_Fzr            	N002_Fzr            	N003_Fzr            	N004_Fzr            	N005_Fzr            	N006_Fzr            	N007_Fzr            	N008_Fzr            	N009_Fzr            	N010_Fzr            	N011_Fzr            	N012_Fzr            	N013_Fzr            	N014_Fzr            	N015_Fzr            	N016_Fzr            	N017_Fzr            	N018_Fzr            	N019_Fzr            	N020_Fzr            	N021_Fzr            	N022_Fzr            	N023_Fzr            	N024_Fzr            	N025_Fzr            	N026_Fzr            	N027_Fzr            	N028_Fzr            	N029_Fzr            	N030_Fzr            	N001_MxL            	N002_MxL            	N003_MxL            	N004_MxL            	N005_MxL            	N006_MxL            	N007_MxL            	N008_MxL            	N009_MxL            	N010_MxL            	N011_MxL            	N012_MxL            	N013_MxL            	N014_MxL            	N015_MxL            	N016_MxL            	N017_MxL            	N018_MxL            	N019_MxL            	N020_MxL            	N021_MxL            	N022_MxL            	N023_MxL            	N024_MxL            	N025_MxL            	N026_MxL            	N027_MxL            	N028_MxL            	N029_MxL            	N030_MxL            	N001_MyL            	N002_MyL            	N003_MyL            	N004_MyL            	N005_MyL            	N006_MyL            	N007_MyL            	N008_MyL            	N009_MyL            	N010_MyL            	N011_MyL            	N012_MyL            	N013_MyL            	N014_MyL            	N015_MyL            	N016_MyL            	N017_MyL            	N018_MyL            	N019_MyL            	N020_MyL            	N021_MyL            	N022_MyL            	N023_MyL            	N024_MyL            	N025_MyL            	N026_MyL            	N027_MyL            	N028_MyL            	N029_MyL            	N030_MyL            	N001_MzL            	N002_MzL            	N003_MzL            	N004_MzL            	N005_MzL            	N006_MzL            	N007_MzL            	N008_MzL            	N009_MzL            	N010_MzL            	N011_MzL            	N012_MzL            	N013_MzL            	N014_MzL            	N015_MzL            	N016_MzL            	N017_MzL            	N018_MzL            	N019_MzL            	N020_MzL            	N021_MzL            	N022_MzL            	N023_MzL            	N024_MzL            	N025_MzL            	N026_MzL            	N027_MzL            	N028_MzL            	N029_MzL            	N030_MzL            	N001_TDxr           	N002_TDxr           	N003_TDxr           	N004_TDxr           	N005_TDxr           	N006_TDxr           	N007_TDxr           	N008_TDxr           	N009_TDxr           	N010_TDxr           	N011_TDxr           	N012_TDxr           	N013_TDxr           	N014_TDxr           	N015_TDxr           	N016_TDxr           	N017_TDxr           	N018_TDxr           	N019_TDxr           	N020_TDxr           	N021_TDxr           	N022_TDxr           	N023_TDxr           	N024_TDxr           	N025_TDxr           	N026_TDxr           	N027_TDxr           	N028_TDxr           	N029_TDxr           	N030_TDxr           	N001_TDyr           	N002_TDyr           	N003_TDyr           	N004_TDyr           	N005_TDyr           	N006_TDyr           	N007_TDyr           	N008_TDyr           	N009_TDyr           	N010_TDyr           	N011_TDyr           	N012_TDyr           	N013_TDyr           	N014_TDyr           	N015_TDyr           	N016_TDyr           	N017_TDyr           	N018_TDyr           	N019_TDyr           	N020_TDyr           	N021_TDyr           	N022_TDyr           	N023_TDyr           	N024_TDyr           	N025_TDyr           	N026_TDyr           	N027_TDyr           	N028_TDyr           	N029_TDyr           	N030_TDyr           	N001_TDzr           	N002_TDzr           	N003_TDzr           	N004_TDzr           	N005_TDzr           	N006_TDzr           	N007_TDzr           	N008_TDzr           	N009_TDzr           	N010_TDzr           	N011_TDzr           	N012_TDzr           	N013_TDzr           	N014_TDzr           	N015_TDzr           	N016_TDzr           	N017_TDzr           	N018_TDzr           	N019_TDzr           	N020_TDzr           	N021_TDzr           	N022_TDzr           	N023_TDzr           	N024_TDzr           	N025_TDzr           	N026_TDzr           	N027_TDzr           	N028_TDzr           	N029_TDzr           	N030_TDzr           	N001_RDxr           	N002_RDxr           	N003_RDxr           	N004_RDxr           	N005_RDxr           	N006_RDxr           	N007_RDxr           	N008_RDxr           	N009_RDxr           	N010_RDxr           	N011_RDxr           	N012_RDxr           	N013_RDxr           	N014_RDxr           	N015_RDxr           	N016_RDxr           	N017_RDxr           	N018_RDxr           	N019_RDxr           	N020_RDxr           	N021_RDxr           	N022_RDxr           	N023_RDxr           	N024_RDxr           	N025_RDxr           	N026_RDxr           	N027_RDxr           	N028_RDxr           	N029_RDxr           	N030_RDxr           	N001_RDyr           	N002_RDyr           	N003_RDyr           	N004_RDyr           	N005_RDyr           	N006_RDyr           	N007_RDyr           	N008_RDyr           	N009_RDyr           	N010_RDyr           	N011_RDyr           	N012_RDyr           	N013_RDyr           	N014_RDyr           	N015_RDyr           	N016_RDyr           	N017_RDyr           	N018_RDyr           	N019_RDyr           	N020_RDyr           	N021_RDyr           	N022_RDyr           	N023_RDyr           	N024_RDyr           	N025_RDyr           	N026_RDyr           	N027_RDyr           	N028_RDyr           	N029_RDyr           	N030_RDyr           	N001_RDzr           	N002_RDzr           	N003_RDzr           	N004_RDzr           	N005_RDzr           	N006_RDzr           	N007_RDzr           	N008_RDzr           	N009_RDzr           	N010_RDzr           	N011_RDzr           	N012_RDzr           	N013_RDzr           	N014_RDzr           	N015_RDzr           	N016_RDzr           	N017_RDzr           	N018_RDzr           	N019_RDzr           	N020_RDzr           	N021_RDzr           	N022_RDzr           	N023_RDzr           	N024_RDzr           	N025_RDzr           	N026_RDzr           	N027_RDzr           	N028_RDzr           	N029_RDzr           	N030_RDzr           
(s)	(m)	(m)	(m)	(-)	(-)	(-)	(N)	(N)	(N)	(N-m)	(N-m)	(N-m)	(N)	(N)	(N)	(N)	(N)	(N)	(N)	(N)	(N)	(N)	(N)	(N)	(N)	(N)	(N)	(N)	(N)	(N)	(N)	(N)	(N)	(N)	(N)	(N)	(N)	(N)	(N)	(N)	(N)	(N)	(N)	(N)	(N)	(N)	(N)	(N)	(N)	(N)	(N)	(N)	(N)	(N)	(N)	(N)	(N)	(N)	(N)	(N)	(N)	(N)	(N)	(N)	(N)	(N)	(N)	(N)	(N)	(N)	(N)	(N)	(N)	(N)	(N)	(N)	(N)	(N)	(N)	(N)	(N)	(N)	(N)	(N)	(N)	(N)	(N)	(N)	(N)	(N)	(N)	(N)	(N)	(N)	(N)	(N)	(N)	(N)	(N)	(N)	(N)	(N)	(N)	(N)	(N)	(N)	(N)	(N)	(N)	(N)	(N)	(N)	(N)	(N)	(N)	(N)	(N)	(N)	(N)	(N)	(N)	(N)	(N)	(N)	(N)	(N)	(N)	(N)	(N)	(N)	(N)	(N)	(N)	(N)	(N)	(N)	(N)	(N)	(N)	(N)	(N)	(N)	(N)	(N)	(N)	(N)	(N)	(N)	(N)	(N)	(N)	(N)	(N)	(N)	(N)	(N)	(N)	(N)	(N)	(N)	(N)	(N)	(N)	(N)	(N)	(N)	(N)	(N)	(N)	(N)	(N)	(N)	(N)	(N)	(N)	(N)	(N)	(N)	(N)	(N)	(N)	(N)	(N)	(N)	(N)	(N)	(N)	(N)	(N)	(N)	(N)	(N)	(N-m)	(N-m)	(N-m)	(N-m)	(N-m)	(N-m)	(N-m)	(N-m)	(N-m)	(N-m)	(N-m)	(N-m)	(N-m)	(N-m)	(N-m)	(N-m)	(N-m)	(N-m)	(N-m)	(N-m)	(N-m)	(N-m)	(N-m)	(N-m)	(N-m)	(N-m)	(N-m)	(N-m)	(N-m)	(N-m)	(N-m)	(N-m)	(N-m)	(N-m)	(N-m)	(N-m)	(N-m)	(N-m)	(N-m)	(N-m)	(N-m)	(N-m)	(N-m)	(N-m)	(N-m)	(N-m)	(N-m)	(N-m)	(N-m)	(N-m)	(N-m)	(N-m)	(N-m)	(N-m)	(N-m)	(N-m)	(N-m)	(N-m)	(N-m)	(N-m)	(N-m)	(N-m)	(N-m)	(N-m)	(N-m)	(N-m)	(N-m)	(N-m)	(N-m)	(N-m)	(N-m)	(N-m)	(N-m)	(N-m)	(N-m)	(N-m)	(N-m)	(N-m)	(N-m)	(N-m)	(N-m)	(N-m)	(N-m)	(N-m)	(N-m)	(N-m)	(N-m)	(N-m)	(N-m)	(N-m)	(m)	(m)	(m)	(m)	(m)	(m)	(m)	(m)	(m)	(m)	(m)	(m)	(m)	(m)	(m)	(m)	(m)	(m)	(m)	(m)	(m)	(m)	(m)	(m)	(m)	(m)	(m)	(m)	(m)	(m)	(m)	(m)	(m)	(m)	(m)	(m)	(m)	(m)	(m)	(m)	(m)	(m)	(m)	(m)	(m)	(m)	(m)	(m)	(m)	(m)	(m)	(m)	(m)	(m)	(m)	(m)	(m)	(m)	(m)	(m)	(m)	(m)	(m)	(m)	(m)	(m)	(m)	(m)	(m)	(m)	(m)	(m)	(m)	(m)	(m)	(m)	(m)	(m)	(m)	(m)	(m)	(m)	(m)	(m)	(m)	(m)	(m)	(m)	(m)	(m)	(-)	(-)	(-)	(-)	(-)	(-)	(-)	(-)	(-)	(-)	(-)	(-)	(-)	(-)	(-)	(-)	(-)	(-)	(-)	(-)	(-)	(-)	(-)	(-)	(-)	(-)	(-)	(-)	(-)	(-)	(-)	(-)	(-)	(-)	(-)	(-)	(-)	(-)	(-)	(-)	(-)	(-)	(-)	(-)	(-)	(-)	(-)	(-)	(-)	(-)	(-)	(-)	(-)	(-)	(-)	(-)	(-)	(-)	(-)	(-)	(-)	(-)	(-)	(-)	(-)	(-)	(-)	(-)	(-)	(-)	(-)	(-)	(-)	(-)	(-)	(-)	(-)	(-)	(-)	(-)	(-)	(-)	(-)	(-)	(-)	(-)	(-)	(-)	(-)	(-)
       0.000000	  0.00000000E+00	  0.00000000E+00	  0.00000000E+00	  0.00000000E+00	  0.00000000E+00	  0.00000000E+00	  0.00000000E+00	  0.00000000E+00	  0.00000000E+00	  0.00000000E+00	  0.00000000E+00	  0.00000000E+00	  0.00000000E+00	 -7.13923580E+00	  9.07701503E+00	  1.98824909E+00	 -1.57131563E+01	 -1.12908544E+01	  3.12412864E+00	  1.67771707E+01	  2.04906686E+01	  1.16397857E+01	 -5.18687351E+00	 -2.10412077E+01	 -2.71846363E+01	 -1.93451248E+01	  0.00000000E+00	  2.22110908E+01	  3.58837906E+01	  3.20191923E+01	  9.13877576E+00	 -2.38922142E+01	 -4.94187783E+01	 -4.80944782E+01	 -1.08142871E+01	  4.82427956E+01	  8.55496765E+01	  4.31367189E+01	 -9.39426583E+01	 -1.66412410E+02	  4.06945550E+02	  1.33170855E+03	  0.00000000E+00	  0.00000000E+00	  0.00000000E+00	  0.00000000E+00	  0.00000000E+00	  0.00000000E+00	  0.00000000E+00	  0.00000000E+00	  0.00000000E+00	  0.00000000E+00	  0.00000000E+00	  0.00000000E+00	  0.00000000E+00	  0.00000000E+00	  0.00000000E+00	  0.00000000E+00	  0.00000000E+00	  0.00000000E+00	  0.00000000E+00	  0.00000000E+00	  0.00000000E+00	  0.00000000E+00	  0.00000000E+00	  0.00000000E+00	  0.00000000E+00	  0.00000000E+00	  0.00000000E+00	  0.00000000E+00	  0.00000000E+00	  0.00000000E+00	  0.00000000E+00	  0.00000000E+00	  0.00000000E+00	  0.00000000E+00	  0.00000000E+00	  0.00000000E+00	  0.00000000E+00	  0.00000000E+00	  0.00000000E+00	  0.00000000E+00	  0.00000000E+00	  0.00000000E+00	  0.00000000E+00	  0.00000000E+00	  0.00000000E+00	  0.00000000E+00	  0.00000000E+00	  0.00000000E+00	  0.00000000E+00	  0.00000000E+00	  0.00000000E+00	  0.00000000E+00	  0.00000000E+00	  0.00000000E+00	  0.00000000E+00	  0.00000000E+00	  0.00000000E+00	  0.00000000E+00	  0.00000000E+00	  0.00000000E+00	  0.00000000E+00	 -7.13923580E+00	  9.07701503E+00	  1.98824909E+00	 -1.57131563E+01	 -1.12908544E+01	  3.12412864E+00	  1.67771707E+01	  2.04906686E+01	  1.16397857E+01	 -5.18687351E+00	 -2.10412077E+01	 -2.71846363E+01	 -1.93451248E+01	  0.00000000E+00	  2.22110908E+01	  3.58837906E+01	  3.20191923E+01	  9.13877576E+00	 -2.38922142E+01	 -4.94187783E+01	 -4.80944782E+01	 -1.08142871E+01	  4.82427956E+01	  8.55496765E+01	  4.31367189E+01	 -9.39426583E+01	 -1.66412410E+02	  4.06945550E+02	  1.33170855E+03	  0.00000000E+00	  0.00000000E+00	  0.00000000E+00	  0.00000000E+00	  0.00000000E+00	  0.00000000E+00	  0.00000000E+00	  0.00000000E+00	  0.00000000E+00	  0.00000000E+00	  0.00000000E+00	  0.00000000E+00	  0.00000000E+00	  0.00000000E+00	  0.00000000E+00	  0.00000000E+00	  0.00000000E+00	  0.00000000E+00	  0.00000000E+00	  0.00000000E+00	  0.00000000E+00	  0.00000000E+00	  0.00000000E+00	  0.00000000E+00	  0.00000000E+00	  0.00000000E+00	  0.00000000E+00	  0.00000000E+00	  0.00000000E+00	  0.00000000E+00	  0.00000000E+00	  0.00000000E+00	  0.00000000E+00	  0.00000000E+00	  0.00000000E+00	  0.00000000E+00	  0.00000000E+00	  0.00000000E+00	  0.00000000E+00	  0.00000000E+00	  0.00000000E+00	  0.00000000E+00	  0.00000000E+00	  0.00000000E+00	  0.00000000E+00	  0.00000000E+00	  0.00000000E+00	  0.00000000E+00	  0.00000000E+00	  0.00000000E+00	  0.00000000E+00	  0.00000000E+00	  0.00000000E+00	  0.00000000E+00	  0.00000000E+00	  0.00000000E+00	  0.00000000E+00	  0.00000000E+00	  0.00000000E+00	  0.00000000E+00	  0.00000000E+00	  0.00000000E+00	  0.00000000E+00	  0.00000000E+00	  0.00000000E+00	  0.00000000E+00	  0.00000000E+00	  0.00000000E+00	  0.00000000E+00	  0.00000000E+00	  0.00000000E+00	  0.00000000E+00	  0.00000000E+00	  0.00000000E+00	  0.00000000E+00	  0.00000000E+00	  0.00000000E+00	  0.00000000E+00	  0.00000000E+00	  0.00000000E+00	  0.00000000E+00	  0.00000000E+00	  0.00000000E+00	  0.00000000E+00	  0.00000000E+00	  0.00000000E+00	  0.00000000E+00	  0.00000000E+00	  0.00000000E+00	  0.00000000E+00	  0.00000000E+00	  0.00000000E+00	  0.00000000E+00	  0.00000000E+00	  0.00000000E+00	  0.00000000E+00	  0.00000000E+00	  0.00000000E+00	  0.00000000E+00	  0.00000000E+00	  0.00000000E+00	  0.00000000E+00	  0.00000000E+00	  0.00000000E+00	  0.00000000E+00	  0.00000000E+00	  0.00000000E+00	  0.00000000E+00	  0.00000000E+00	  0.00000000E+00	  0.00000000E+00	  0.00000000E+00	  0.00000000E+00	  0.00000000E+00	  0.00000000E+00	  0.00000000E+00	  0.00000000E+00	  0.00000000E+00	  0.00000000E+00	  0.00000000E+00	  0.00000000E+00	  0.00000000E+00	  0.00000000E+00	  0.00000000E+00	  0.00000000E+00	  0.00000000E+00	  0.00000000E+00	  0.00000000E+00	  0.00000000E+00	  0.00000000E+00	  0.00000000E+00	  0.00000000E+00	  0.00000000E+00	  0.00000000E+00	  0.00000000E+00	  0.00000000E+00	  0.00000000E+00	  0.00000000E+00	  0.00000000E+00	  0.00000000E+00	  0.00000000E+00	  0.00000000E+00	  0.00000000E+00	  0.00000000E+00	  0.00000000E+00	  0.00000000E+00	  0.00000000E+00	  0.00000000E+00	  0.00000000E+00	  0.00000000E+00	  0.00000000E+00	  0.00000000E+00	  0.00000000E+00	  0.00000000E+00	  0.00000000E+00	  0.00000000E+00	  0.00000000E+00	  0.00000000E+00	  0.00000000E+00	  0.00000000E+00	  0.00000000E+00	  0.00000000E+00	  0.00000000E+00	  0.00000000E+00	  0.00000000E+00	  0.00000000E+00	  0.00000000E+00	  0.00000000E+00	  0.00000000E+00	  0.00000000E+00	  0.00000000E+00	  0.00000000E+00	  0.00000000E+00	  0.00000000E+00	  0.00000000E+00	  0.00000000E+00	  0.00000000E+00	  0.00000000E+00	  0.00000000E+00	  0.00000000E+00	  0.00000000E+00	  0.00000000E+00	  0.00000000E+00	  0.00000000E+00	  0.00000000E+00	  0.00000000E+00	  0.00000000E+00	  0.00000000E+00	  0.00000000E+00	  0.00000000E+00	  0.00000000E+00	  0.00000000E+00	  0.00000000E+00	  0.00000000E+00	  0.00000000E+00	  0.00000000E+00	  0.00000000E+00	  0.00000000E+00	  0.00000000E+00	  0.00000000E+00	  0.00000000E+00	  0.00000000E+00	  0.00000000E+00	  0.00000000E+00	  0.00000000E+00	  0.00000000E+00	  0.00000000E+00	  0.00000000E+00	  0.00000000E+00	  0.00000000E+00	  0.00000000E+00	  0.00000000E+00	  0.00000000E+00	  0.00000000E+00	  0.00000000E+00	  0.00000000E+00	  0.00000000E+00	  0.00000000E+00	  0.00000000E+00	  0.00000000E+00	  0.00000000E+00	  0.00000000E+00	  0.00000000E+00	  0.00000000E+00	  0.00000000E+00	  0.00000000E+00	  0.00000000E+00	  0.00000000E+00	  0.00000000E+00	  0.00000000E+00	  0.00000000E+00	  0.00000000E+00	  0.00000000E+00	  0.00000000E+00	  0.00000000E+00	  0.00000000E+00	  0.00000000E+00	  0.00000000E+00	  0.00000000E+00	  0.00000000E+00	  0.00000000E+00	  0.00000000E+00	  0.00000000E+00	  0.00000000E+00	  0.00000000E+00	  0.00000000E+00	  0.00000000E+00	  0.00000000E+00	  0.00000000E+00	  0.00000000E+00	  0.00000000E+00	  0.00000000E+00	  0.00000000E+00	  0.00000000E+00	  0.00000000E+00	  0.00000000E+00	  0.00000000E+00	  0.00000000E+00	  0.00000000E+00	  0.00000000E+00	  0.00000000E+00	  0.00000000E+00	  0.00000000E+00	  0.00000000E+00	  0.00000000E+00	  0.00000000E+00	  0.00000000E+00	  0.00000000E+00	  0.00000000E+00	  0.00000000E+00	  0.00000000E+00	  0.00000000E+00	  0.00000000E+00	  0.00000000E+00	  0.00000000E+00	  0.00000000E+00	  0.00000000E+00	  0.00000000E+00	  0.00000000E+00	  0.00000000E+00	  0.00000000E+00	  0.00000000E+00	  0.00000000E+00	  0.00000000E+00	  0.00000000E+00	  0.00000000E+00	  0.00000000E+00	  0.00000000E+00	  0.00000000E+00	  0.00000000E+00	  0.00000000E+00	  0.00000000E+00	  0.00000000E+00	  0.00000000E+00	  0.00000000E+00	  0.00000000E+00	  0.00000000E+00	  0.00000000E+00	  0.00000000E+00	  0.00000000E+00	  0.00000000E+00	  0.00000000E+00	  0.00000000E+00	  0.00000000E+00	  0.00000000E+00	  0.00000000E+00	  0.00000000E+00	  0.00000000E+00	  0.00000000E+00	  0.00000000E+00	  0.00000000E+00	  0.00000000E+00	  0.00000000E+00	  0.00000000E+00	  0.00000000E+00	  0.00000000E+00	  0.00000000E+00	  0.00000000E+00	  0.00000000E+00	  0.00000000E+00	  0.00000000E+00	  0.00000000E+00	  0.00000000E+00	  0.00000000E+00	  0.00000000E+00	  0.00000000E+00	  0.00000000E+00	  0.00000000E+00	  0.00000000E+00	  0.00000000E+00
       0.000200	  1.39033879E+01	 -1.42064984E+00	 -1.49654242E+00	  2.28601770E-03	  3.52546289E-01	 -1.42934061E-01	  8.84075079E+05	  4.01333902E+02	  1.09730897E+01	  7.74606768E+03	  3.24001186E+07	  1.99719581E+05	  8.84075079E+05	  8.54704659E+05	  7.97286896E+05	  7.18956738E+05	  6.49549660E+05	  6.06383842E+05	  5.64536150E+05	  5.23464010E+05	  4.83030814E+05	  4.43385073E+05	  4.04825547E+05	  3.67673097E+05	  3.32188407E+05	  2.98526491E+05	  2.66738913E+05	  2.36792776E+05	  2.08609809E+05	  1.82107862E+05	  1.57230764E+05	  1.33970350E+05	  1.12361787E+05	  9.24656000E+04	  7.43346126E+04	  5.79862353E+04	  4.33842801E+04	  3.04600923E+04	  1.91946529E+04	  9.80507262E+03	  3.07642021E+03	  1.23706663E+03	  4.01333902E+02	  1.80388459E+02	 -1.51139069E+02	  6.78920086E+02	  2.40957779E+03	  3.52001408E+03	  4.42236685E+03	  5.12017950E+03	  5.68279381E+03	  6.18566785E+03	  6.67337773E+03	  7.14844602E+03	  7.57988542E+03	  7.92214238E+03	  8.13506052E+03	  8.19847976E+03	  8.11781458E+03	  7.92017688E+03	  7.64290938E+03	  7.31841957E+03	  6.96006771E+03	  6.55400542E+03	  6.06032415E+03	  5.42498785E+03	  4.60147373E+03	  3.57993465E+03	  2.41967454E+03	  1.27761460E+03	  4.14386378E+02	  1.85785252E+02	  1.09730897E+01	  6.79044544E+02	  1.90095588E+03	  5.86678525E+03	  1.29260907E+04	  1.84790810E+04	  2.38726757E+04	  2.85192679E+04	  3.20647123E+04	  3.43999083E+04	  3.56084526E+04	  3.58856940E+04	  3.54589807E+04	  3.45304787E+04	  3.32498643E+04	  3.17126580E+04	  2.99743589E+04	  2.80692906E+04	  2.60249972E+04	  2.38683146E+04	  2.16219909E+04	  1.92969496E+04	  1.68862079E+04	  1.43682303E+04	  1.17226308E+04	  8.95979617E+03	  6.15920184E+03	  3.50466612E+03	  1.28860915E+03	  4.56724923E+02	  8.84075079E+05	  8.54704914E+05	  7.97289162E+05	  7.18980948E+05	  6.49682727E+05	  6.06675534E+05	  5.65057948E+05	  5.24265305E+05	  4.84127258E+05	  4.44760533E+05	  4.06443358E+05	  3.69489345E+05	  3.34161531E+05	  3.00621322E+05	  2.68926333E+05	  2.39047511E+05	  2.10908519E+05	  1.84428536E+05	  1.59553204E+05	  1.36276565E+05	  1.14634696E+05	  9.46847776E+04	  7.64689565E+04	  5.99856075E+04	  4.51750290E+04	  3.19516915E+04	  2.03031426E+04	  1.04887333E+04	  3.35612133E+03	  1.33170855E+03	  4.01333902E+02	  1.97857585E+02	 -1.53116745E+02	 -2.14417540E+02	  3.15353214E+01	  1.62810051E+02	  2.02230380E+02	  1.57869552E+02	  6.98690332E+01	 -1.54540087E+01	 -6.45959667E+01	 -6.58309361E+01	 -2.86011168E+01	  2.39601825E+01	  6.56665744E+01	  7.74069685E+01	  5.37846257E+01	  4.54048342E+00	 -4.94938443E+01	 -8.46264165E+01	 -8.42047664E+01	 -4.68002600E+01	  1.08032192E+01	  5.84451709E+01	  6.59044569E+01	  2.18703662E+01	 -4.93610964E+01	 -8.83827709E+01	 -4.25025157E+01	  0.00000000E+00	  1.09730897E+01	  1.38966133E+02	  2.19497321E+01	 -1.46797621E+02	 -6.85984007E+01	  8.56722483E+00	  4.12700685E+01	  2.08378370E+01	 -3.11776353E+01	 -8.25780228E+01	 -1.07211547E+02	 -9.42694013E+01	 -4.95712109E+01	  9.32179759E+00	  6.11401399E+01	  8.89559079E+01	  8.56696407E+01	  5.54747849E+01	  1.11566523E+01	 -3.15808998E+01	 -6.05667632E+01	 -7.16624818E+01	 -6.88862630E+01	 -5.90634035E+01	 -4.25546337E+01	 -5.80599726E+00	  7.25154230E+01	  1.81917794E+02	  1.76731634E+02	  0.00000000E+00	  7.74606768E+03	  2.01092663E+04	  3.06438033E+03	 -4.51475883E+04	 -7.88209215E+04	 -9.50163786E+04	 -1.10461663E+05	 -1.26316894E+05	 -1.41217197E+05	 -1.52521799E+05	 -1.57869890E+05	 -1.56320909E+05	 -1.48714959E+05	 -1.37263316E+05	 -1.24647356E+05	 -1.13015643E+05	 -1.03257086E+05	 -9.48028083E+04	 -8.60284272E+04	 -7.51317329E+04	 -6.11686306E+04	 -4.48207663E+04	 -2.84644099E+04	 -1.53011199E+04	 -7.66726221E+03	 -5.19897737E+03	 -4.16245313E+03	  2.95530205E+01	  4.17778498E+03	 -1.30420751E+03	  3.24001186E+07	  3.08710322E+07	  2.79750945E+07	  2.39998201E+07	  2.03951276E+07	  1.81724458E+07	  1.60892171E+07	  1.41477044E+07	  1.23520259E+07	  1.07049919E+07	  9.20664305E+06	  7.85350253E+06	  6.63913282E+06	  5.55509169E+06	  4.59244511E+06	  3.74275922E+06	  2.99882948E+06	  2.35480355E+06	  1.80564889E+06	  1.34641434E+06	  9.71208130E+05	  6.72540196E+05	  4.41201552E+05	  2.67054487E+05	  1.40545137E+05	  5.45888638E+04	  5.48902364E+03	 -9.46916250E+03	 -1.58444420E+03	  1.67789779E+01	  1.99719581E+05	  1.90672873E+05	  1.87480076E+05	  1.62203292E+05	  1.05317725E+05	  6.33165600E+04	  2.63382576E+04	 -2.47738097E+03	 -2.29547890E+04	 -3.65732249E+04	 -4.52861749E+04	 -5.07775504E+04	 -5.41469892E+04	 -5.59127299E+04	 -5.61935685E+04	 -5.49489340E+04	 -5.21791551E+04	 -4.80303125E+04	 -4.27956071E+04	 -3.68512436E+04	 -3.05820177E+04	 -2.43494106E+04	 -1.85156218E+04	 -1.34787133E+04	 -9.60132888E+03	 -6.93545449E+03	 -4.87197723E+03	 -2.35259693E+03	  1.55847733E+02	 -3.71664750E+02	  0.00000000E+00	  8.26946006E-04	  6.47949701E-03	  3.62023991E-02	  1.15909652E-01	  2.09643631E-01	  3.42154746E-01	  5.16165589E-01	  7.32134809E-01	  9.88740156E-01	  1.28347144E+00	  1.61334222E+00	  1.97552277E+00	  2.36792306E+00	  2.78951371E+00	  3.24057407E+00	  3.72271389E+00	  4.23873624E+00	  4.79246105E+00	  5.38832923E+00	  6.03113493E+00	  6.72568457E+00	  7.47661819E+00	  8.28806676E+00	  9.16349871E+00	  1.01053227E+01	  1.11143504E+01	  1.21884125E+01	  1.33202889E+01	  1.39033879E+01	  0.00000000E+00	 -5.75337730E-06	 -7.96371860E-05	 -3.14692305E-03	 -1.53061448E-02	 -3.05832040E-02	 -5.20700850E-02	 -7.95290883E-02	 -1.12380170E-01	 -1.49911192E-01	 -1.91430305E-01	 -2.36365403E-01	 -2.84298562E-01	 -3.34963123E-01	 -3.88199792E-01	 -4.43917807E-01	 -5.02055293E-01	 -5.62554251E-01	 -6.25361957E-01	 -6.90428284E-01	 -7.57725172E-01	 -8.27248869E-01	 -8.99018099E-01	 -9.73033326E-01	 -1.04924792E+00	 -1.12754998E+00	 -1.20784129E+00	 -1.29027731E+00	 -1.37586471E+00	 -1.42064984E+00	  0.00000000E+00	  5.01309640E-07	  4.81803230E-05	 -1.07579012E-04	 -8.60115252E-04	 -2.18970261E-03	 -4.76285978E-03	 -9.14613652E-03	 -1.58635070E-02	 -2.53330126E-02	 -3.78413065E-02	 -5.35590315E-02	 -7.25855311E-02	 -9.50155940E-02	 -1.21007064E-01	 -1.50849367E-01	 -1.85016923E-01	 -2.24205047E-01	 -2.69354353E-01	 -3.21648620E-01	 -3.82512521E-01	 -4.53593416E-01	 -5.36745937E-01	 -6.33978583E-01	 -7.47383263E-01	 -8.78976622E-01	 -1.03042880E+00	 -1.20252953E+00	 -1.39434102E+00	 -1.49654242E+00	  0.00000000E+00	  2.84480124E-07	  7.72742325E-05	  1.08422429E-03	  3.20273734E-03	  4.93972441E-03	  6.69291006E-03	  8.30286467E-03	  9.67792629E-03	  1.07921189E-02	  1.16691972E-02	  1.23609529E-02	  1.29251928E-02	  1.34081443E-02	  1.38336106E-02	  1.41999688E-02	  1.44838626E-02	  1.46484324E-02	  1.46529490E-02	  1.44604226E-02	  1.40404959E-02	  1.33663284E-02	  1.24068325E-02	  1.11200218E-02	  9.45800344E-03	  7.40197298E-03	  5.05364448E-03	  2.82184081E-03	  1.75381350E-03	  2.28601770E-03	  0.00000000E+00	  6.31888881E-04	  2.35673141E-03	  8.36448954E-03	  2.00091287E-02	  3.04659049E-02	  4.22170765E-02	  5.44315959E-02	  6.64099024E-02	  7.76947501E-02	  8.80990661E-02	  9.76748930E-02	  1.06642633E-01	  1.15310249E-01	  1.24000511E-01	  1.33006500E-01	  1.42577299E-01	  1.52931305E-01	  1.64286150E-01	  1.76881881E-01	  1.90982340E-01	  2.06831987E-01	  2.24565142E-01	  2.44071337E-01	  2.64865530E-01	  2.86035447E-01	  3.06404987E-01	  3.25103905E-01	  3.42839535E-01	  3.52546289E-01	  0.00000000E+00	  2.04389191E-05	 -2.38731753E-06	 -1.23820761E-03	 -3.62889645E-03	 -5.45947877E-03	 -7.32938223E-03	 -9.24448860E-03	 -1.12831422E-02	 -1.35416709E-02	 -1.60918365E-02	 -1.89606410E-02	 -2.21323031E-02	 -2.55684812E-02	 -2.92373115E-02	 -3.31440733E-02	 -3.73537093E-02	 -4.19990761E-02	 -4.72719398E-02	 -5.33942022E-02	 -6.05749055E-02	 -6.89566960E-02	 -7.85622934E-02	 -8.92465500E-02	 -1.00668116E-01	 -1.12283783E-01	 -1.23371383E-01	 -1.33071137E-01	 -1.40437261E-01	 -1.42934061E-01