
Predictions were generated on 20-Sep-2024 at 18:18:22 using BeamDyn




       Time	              TipTDxr             	TipTDyr             	TipTDzr             	TipRDxr             	TipRDyr             	TipRDzr             	RootFxr             	RootFyr             	RootFzr             	RootMxr             	RootMyr             	RootMzr             	N001_FxL            	N002_FxL            	N003_FxL            	N004_FxL            	N005_FxL            	N006_FxL            	N007_FxL            	N008_FxL            	N009_FxL            	N010_FxL            	N011_FxL            	N001_FyL            	N002_FyL            	N003_FyL            	N004_FyL            	N005_FyL            	N006_FyL            	N007_FyL            	N008_FyL            	N009_FyL            	N010_FyL            	N011_FyL            	N001_FzL            	N002_FzL            	N003_FzL            	N004_FzL            	N005_FzL            	N006_FzL            	N007_FzL            	N008_FzL            	N009_FzL            	N010_FzL            	N011_FzL            	N001_Fxr            	N002_Fxr            	N003_Fxr            	N004_Fxr            	N005_Fxr            	N006_Fxr            	N007_Fxr            	N008_Fxr            	N009_Fxr            	N010_Fxr            	N011_Fxr            	N001_Fyr            	N002_Fyr            	N003_Fyr            	N004_Fyr            	N005_Fyr            	N006_Fyr            	N007_Fyr            	N008_Fyr            	N009_Fyr            	N010_Fyr            	N011_Fyr            	N001_Fzr            	N002_Fzr            	N003_Fzr            	N004_Fzr            	N005_Fzr            	N006_Fzr            	N007_Fzr            	N008_Fzr            	N009_Fzr            	N010_Fzr            	N011_Fzr            	N001_MxL            	N002_MxL            	N003_MxL            	N004_MxL            	N005_MxL            	N006_MxL            	N007_MxL            	N008_MxL            	N009_MxL            	N010_MxL            	N011_MxL            	N001_MyL            	N002_MyL            	N003_MyL            	N004_MyL            	N005_MyL            	N006_MyL            	N007_MyL            	N008_MyL            	N009_MyL            	N010_MyL            	N011_MyL            	N001_MzL            	N002_MzL            	N003_MzL            	N004_MzL            	N005_MzL            	N006_MzL            	N007_MzL            	N008_MzL            	N009_MzL            	N010_MzL            	N011_MzL            	N001_TDxr           	N002_TDxr           	N003_TDxr           	N004_TDxr           	N005_TDxr           	N006_TDxr           	N007_TDxr           	N008_TDxr           	N009_TDxr           	N010_TDxr           	N011_TDxr           	N001_TDyr           	N002_TDyr           	N003_TDyr           	N004_TDyr           	N005_TDyr           	N006_TDyr           	N007_TDyr           	N008_TDyr           	N009_TDyr           	N010_TDyr           	N011_TDyr           	N001_TDzr           	N002_TDzr           	N003_TDzr           	N004_TDzr           	N005_TDzr           	N006_TDzr           	N007_TDzr           	N008_TDzr           	N009_TDzr           	N010_TDzr           	N011_TDzr           	N001_RDxr           	N002_RDxr           	N003_RDxr           	N004_RDxr           	N005_RDxr           	N006_RDxr           	N007_RDxr           	N008_RDxr           	N009_RDxr           	N010_RDxr           	N011_RDxr           	N001_RDyr           	N002_RDyr           	N003_RDyr           	N004_RDyr           	N005_RDyr           	N006_RDyr           	N007_RDyr           	N008_RDyr           	N009_RDyr           	N010_RDyr           	N011_RDyr           	N001_RDzr           	N002_RDzr           	N003_RDzr           	N004_RDzr           	N005_RDzr           	N006_RDzr           	N007_RDzr           	N008_RDzr           	N009_RDzr           	N010_RDzr           	N011_RDzr           
(s)	(m)	(m)	(m)	(-)	(-)	(-)	(N)	(N)	(N)	(N-m)	(N-m)	(N-m)	(N)	(N)	(N)	(N)	(N)	(N)	(N)	(N)	(N)	(N)	(N)	(N)	(N)	(N)	(N)	(N)	(N)	(N)	(N)	(N)	(N)	(N)	(N)	(N)	(N)	(N)	(N)	(N)	(N)	(N)	(N)	(N)	(N)	(N)	(N)	(N)	(N)	(N)	(N)	(N)	(N)	(N)	(N)	(N)	(N)	(N)	(N)	(N)	(N)	(N)	(N)	(N)	(N)	(N)	(N)	(N)	(N)	(N)	(N)	(N)	(N)	(N)	(N)	(N)	(N)	(N)	(N-m)	(N-m)	(N-m)	(N-m)	(N-m)	(N-m)	(N-m)	(N-m)	(N-m)	(N-m)	(N-m)	(N-m)	(N-m)	(N-m)	(N-m)	(N-m)	(N-m)	(N-m)	(N-m)	(N-m)	(N-m)	(N-m)	(N-m)	(N-m)	(N-m)	(N-m)	(N-m)	(N-m)	(N-m)	(N-m)	(N-m)	(N-m)	(N-m)	(m)	(m)	(m)	(m)	(m)	(m)	(m)	(m)	(m)	(m)	(m)	(m)	(m)	(m)	(m)	(m)	(m)	(m)	(m)	(m)	(m)	(m)	(m)	(m)	(m)	(m)	(m)	(m)	(m)	(m)	(m)	(m)	(m)	(-)	(-)	(-)	(-)	(-)	(-)	(-)	(-)	(-)	(-)	(-)	(-)	(-)	(-)	(-)	(-)	(-)	(-)	(-)	(-)	(-)	(-)	(-)	(-)	(-)	(-)	(-)	(-)	(-)	(-)	(-)	(-)	(-)
       0.000000	  0.00000000E+00	  0.00000000E+00	  0.00000000E+00	  0.00000000E+00	  0.00000000E+00	  0.00000000E+00	  0.00000000E+00	  0.00000000E+00	  0.00000000E+00	  0.00000000E+00	  0.00000000E+00	  0.00000000E+00	  0.00000000E+00	  0.00000000E+00	  0.00000000E+00	  0.00000000E+00	  0.00000000E+00	  0.00000000E+00	  0.00000000E+00	  0.00000000E+00	  0.00000000E+00	  0.00000000E+00	  1.33170855E+03	  0.00000000E+00	  0.00000000E+00	  0.00000000E+00	  0.00000000E+00	  0.00000000E+00	  0.00000000E+00	  0.00000000E+00	  0.00000000E+00	  0.00000000E+00	  0.00000000E+00	  0.00000000E+00	  0.00000000E+00	  0.00000000E+00	  0.00000000E+00	  0.00000000E+00	  0.00000000E+00	  0.00000000E+00	  0.00000000E+00	  0.00000000E+00	  0.00000000E+00	  0.00000000E+00	  0.00000000E+00	  0.00000000E+00	  0.00000000E+00	  0.00000000E+00	  0.00000000E+00	  0.00000000E+00	  0.00000000E+00	  0.00000000E+00	  0.00000000E+00	  0.00000000E+00	  0.00000000E+00	  1.33170855E+03	  0.00000000E+00	  0.00000000E+00	  0.00000000E+00	  0.00000000E+00	  0.00000000E+00	  0.00000000E+00	  0.00000000E+00	  0.00000000E+00	  0.00000000E+00	  0.00000000E+00	  0.00000000E+00	  0.00000000E+00	  0.00000000E+00	  0.00000000E+00	  0.00000000E+00	  0.00000000E+00	  0.00000000E+00	  0.00000000E+00	  0.00000000E+00	  0.00000000E+00	  0.00000000E+00	  0.00000000E+00	  0.00000000E+00	  0.00000000E+00	  0.00000000E+00	  0.00000000E+00	  0.00000000E+00	  0.00000000E+00	  0.00000000E+00	  0.00000000E+00	  0.00000000E+00	  0.00000000E+00	  0.00000000E+00	  0.00000000E+00	  0.00000000E+00	  0.00000000E+00	  0.00000000E+00	  0.00000000E+00	  0.00000000E+00	  0.00000000E+00	  0.00000000E+00	  0.00000000E+00	  0.00000000E+00	  0.00000000E+00	  0.00000000E+00	  0.00000000E+00	  0.00000000E+00	  0.00000000E+00	  0.00000000E+00	  0.00000000E+00	  0.00000000E+00	  0.00000000E+00	  0.00000000E+00	  0.00000000E+00	  0.00000000E+00	  0.00000000E+00	  0.00000000E+00	  0.00000000E+00	  0.00000000E+00	  0.00000000E+00	  0.00000000E+00	  0.00000000E+00	  0.00000000E+00	  0.00000000E+00	  0.00000000E+00	  0.00000000E+00	  0.00000000E+00	  0.00000000E+00	  0.00000000E+00	  0.00000000E+00	  0.00000000E+00	  0.00000000E+00	  0.00000000E+00	  0.00000000E+00	  0.00000000E+00	  0.00000000E+00	  0.00000000E+00	  0.00000000E+00	  0.00000000E+00	  0.00000000E+00	  0.00000000E+00	  0.00000000E+00	  0.00000000E+00	  0.00000000E+00	  0.00000000E+00	  0.00000000E+00	  0.00000000E+00	  0.00000000E+00	  0.00000000E+00	  0.00000000E+00	  0.00000000E+00	  0.00000000E+00	  0.00000000E+00	  0.00000000E+00	  0.00000000E+00	  0.00000000E+00	  0.00000000E+00	  0.00000000E+00	  0.00000000E+00	  0.00000000E+00	  0.00000000E+00	  0.00000000E+00	  0.00000000E+00	  0.00000000E+00	  0.00000000E+00	  0.00000000E+00	  0.00000000E+00	  0.00000000E+00	  0.00000000E+00	  0.00000000E+00	  0.00000000E+00	  0.00000000E+00	  0.00000000E+00	  0.00000000E+00	  0.00000000E+00	  0.00000000E+00	  0.00000000E+00	  0.00000000E+00	  0.00000000E+00	  0.00000000E+00	  0.00000000E+00
       0.000200	  1.37957999E+01	 -1.38249516E+00	 -1.48214253E+00	  1.80543328E-03	  3.39446183E-01	 -1.44741532E-01	  8.84543930E+05	 -4.90502956E+02	 -5.55903107E+01	 -1.11937232E+02	  3.23914681E+07	  1.79203378E+05	  8.84543930E+05	  8.28092328E+05	  7.12907811E+05	  5.72652042E+05	  4.15871056E+05	  2.66789884E+05	  1.50393543E+05	  7.10077663E+04	  2.60097341E+04	  5.73492670E+03	  1.24256058E+03	 -4.90502956E+02	  5.81921252E-01	  3.51522645E+01	  1.96183554E+03	  5.76119631E+03	  7.65935991E+03	  7.62716462E+03	  5.96052345E+03	  3.23407116E+03	  8.26903803E+02	  1.88302120E+02	 -5.55903107E+01	  1.15678046E+03	  5.85746114E+03	  2.21534140E+04	  3.52095708E+04	  3.27384665E+04	  2.52505228E+04	  1.63621953E+04	  7.96146179E+03	  2.00443299E+03	  4.40491988E+02	  8.84543930E+05	  8.28093136E+05	  7.12931874E+05	  5.73083749E+05	  4.17398659E+05	  2.68900196E+05	  1.52689162E+05	  7.31119150E+04	  2.73925237E+04	  6.13114059E+03	  1.33170855E+03	 -4.90502956E+02	 -7.79500329E+00	  1.98130082E+01	 -1.86781455E+01	  6.79337908E+00	 -4.93924388E+00	  4.53840696E+00	 -2.29856099E+00	  1.25532436E+00	 -4.80940739E-01	  0.00000000E+00	 -5.55903107E+01	 -7.83476397E+00	  4.34917098E+00	  3.83578410E-01	  9.44112810E+00	 -8.05659531E+00	 -8.84181023E-03	  6.11103489E+00	  3.62934856E-02	  4.54066890E+00	  0.00000000E+00	 -1.11937232E+02	 -8.61351692E+02	 -1.16751863E+03	 -5.89000030E+04	 -1.29026294E+05	 -1.25540494E+05	 -7.71892228E+04	 -3.00224867E+04	 -2.05205848E+03	  1.22229712E+03	  8.10661382E+01	  3.23914681E+07	  2.95254853E+07	  2.36865335E+07	  1.64909537E+07	  9.62428453E+06	  4.59503993E+06	  1.66384437E+06	  4.03422866E+05	  3.16305636E+04	 -6.27314853E+03	  4.74317852E+00	  1.79203378E+05	  1.78099609E+05	  1.50735461E+05	  3.34482215E+04	 -4.37321355E+04	 -5.59734648E+04	 -4.05576615E+04	 -1.77089333E+04	 -5.66322692E+03	 -1.16621499E+03	 -9.28077213E+01	  0.00000000E+00	  3.23902737E-03	  3.59744178E-02	  2.89850844E-01	  1.16542057E+00	  2.74067644E+00	  4.89004749E+00	  7.53262915E+00	  1.03749324E+01	  1.27089024E+01	  1.37957999E+01	  0.00000000E+00	 -8.41764697E-05	 -2.48732655E-03	 -4.07067820E-02	 -1.65821454E-01	 -3.66143606E-01	 -6.12187931E-01	 -8.74885253E-01	 -1.11826284E+00	 -1.29955454E+00	 -1.38249516E+00	  0.00000000E+00	  2.19570282E-06	 -1.30756569E-04	 -3.53862632E-03	 -3.27720365E-02	 -1.17843838E-01	 -2.77151601E-01	 -5.42925266E-01	 -9.21501352E-01	 -1.29680434E+00	 -1.48214253E+00	  0.00000000E+00	  1.56919332E-06	  9.53602514E-04	  5.89835469E-03	  1.10003605E-02	  1.32810016E-02	  1.40470671E-02	  1.18321587E-02	  6.26038300E-03	  2.10002556E-03	  1.80543328E-03	  0.00000000E+00	  1.40638244E-03	  8.21005790E-03	  3.86766766E-02	  8.45236036E-02	  1.22327396E-01	  1.66662047E-01	  2.26644345E-01	  2.96641295E-01	  3.34465985E-01	  3.39446183E-01	  0.00000000E+00	 -1.01148358E-05	 -1.75956280E-05	 -3.34280795E-03	 -1.33402546E-02	 -2.77747566E-02	 -4.90348395E-02	 -8.11039639E-02	 -1.19366800E-01	 -1.37957424E-01	 -1.44741532E-01
       0.000400	  1.37958039E+01	 -1.38249576E+00	 -1.48214387E+00	  1.80492110E-03	  3.39446522E-01	 -1.44744973E-01	  8.84728785E+05	 -1.28571580E-01	 -2.38439786E-02	 -1.40812998E-02	  3.23914828E+07	  1.78114273E+05	  8.84728785E+05	  8.28089364E+05	  7.12908445E+05	  5.72654843E+05	  4.15869667E+05	  2.66790950E+05	  1.50392629E+05	  7.10084096E+04	  2.60093044E+04	  5.73520352E+03	  1.24255979E+03	 -1.28571580E-01	  8.38039389E+00	  1.53259871E+01	  1.98054191E+03	  5.75425675E+03	  7.66448447E+03	  7.62253591E+03	  5.96280748E+03	  3.23274624E+03	  8.27291712E+02	  1.88306431E+02	 -2.38439786E-02	  1.16460903E+03	  5.85313651E+03	  2.21530283E+04	  3.52000554E+04	  3.27466538E+04	  2.52504265E+04	  1.63560685E+04	  7.96128083E+03	  1.99973433E+03	  4.40492372E+02	  8.84728785E+05	  8.28090183E+05	  7.12932473E+05	  5.73086598E+05	  4.17396376E+05	  2.68902396E+05	  1.52688015E+05	  7.31113554E+04	  2.73919067E+04	  6.12991912E+03	  1.33170855E+03	 -1.28571580E-01	 -1.97817551E-03	  5.31916054E-03	 -5.31624857E-03	  1.94429626E-03	 -1.44914890E-03	  1.35323373E-03	 -6.74307179E-04	  3.78915420E-04	 -1.24511707E-04	  0.00000000E+00	 -2.38439786E-02	 -2.21543271E-03	  1.34836377E-03	  3.31916607E-05	  2.82543267E-03	 -2.37279554E-03	 -2.10735242E-05	  1.28835858E-03	 -9.28324155E-04	  3.78317585E-04	  0.00000000E+00	 -1.40812998E-02	 -5.49377375E+02	 -1.74672869E+03	 -5.83282033E+04	 -1.29466389E+05	 -1.25138481E+05	 -7.75200600E+04	 -2.98001225E+04	 -2.19340525E+03	  1.30593613E+03	  3.66795323E+01	  3.23914828E+07	  2.95254953E+07	  2.36865809E+07	  1.64908544E+07	  9.62435983E+06	  4.59498375E+06	  1.66388613E+06	  4.03394567E+05	  3.16474417E+04	 -6.27821315E+03	  2.48025521E+00	  1.78114273E+05	  1.78059128E+05	  1.50770196E+05	  3.34454703E+04	 -4.37448573E+04	 -5.59570379E+04	 -4.05763109E+04	 -1.76882251E+04	 -5.68477300E+03	 -1.14817549E+03	 -1.04486998E+02	  0.00000000E+00	  3.23902712E-03	  3.59744182E-02	  2.89850819E-01	  1.16542060E+00	  2.74067650E+00	  4.89004767E+00	  7.53262951E+00	  1.03749333E+01	  1.27089051E+01	  1.37958039E+01	  0.00000000E+00	 -8.41753952E-05	 -2.48733358E-03	 -4.07067306E-02	 -1.65821484E-01	 -3.66143677E-01	 -6.12188062E-01	 -8.74885238E-01	 -1.11826361E+00	 -1.29955491E+00	 -1.38249576E+00	  0.00000000E+00	  2.19605456E-06	 -1.30757474E-04	 -3.53862533E-03	 -3.27720396E-02	 -1.17843846E-01	 -2.77151626E-01	 -5.42925336E-01	 -9.21501599E-01	 -1.29680520E+00	 -1.48214387E+00	  0.00000000E+00	  1.57213204E-06	  9.53594549E-04	  5.89836300E-03	  1.10003538E-02	  1.32810206E-02	  1.40470456E-02	  1.18321587E-02	  6.26035759E-03	  2.10054299E-03	  1.80492110E-03	  0.00000000E+00	  1.40638268E-03	  8.21005682E-03	  3.86766747E-02	  8.45236099E-02	  1.22327396E-01	  1.66662062E-01	  2.26644352E-01	  2.96641456E-01	  3.34466339E-01	  3.39446522E-01	  0.00000000E+00	 -1.01214335E-05	 -1.75753721E-05	 -3.34285380E-03	 -1.33402085E-02	 -2.77748800E-02	 -4.90345751E-02	 -8.11047291E-02	 -1.19366564E-01	 -1.37954428E-01	 -1.44744973E-01
       0.000600	  1.37958039E+01	 -1.38249576E+00	 -1.48214387E+00	  1.80492099E-03	  3.39446522E-01	 -1.44744974E-01	  8.84728803E+05	 -2.48679071E-02	 -4.59391328E-03	 -2.72377425E-03	  3.23914828E+07	  1.78114153E+05	  8.84728803E+05	  8.28089364E+05	  7.12908445E+05	  5.72654844E+05	  4.15869666E+05	  2.66790950E+05	  1.50392629E+05	  7.10084098E+04	  2.60093042E+04	  5.73520359E+03	  1.24255979E+03	 -2.48679071E-02	  8.38199096E+00	  1.53216918E+01	  1.98054620E+03	  5.75425515E+03	  7.66448569E+03	  7.62253479E+03	  5.96280803E+03	  3.23274593E+03	  8.27291810E+02	  1.88306432E+02	 -4.59391328E-03	  1.16461081E+03	  5.85313543E+03	  2.21530283E+04	  3.52000531E+04	  3.27466557E+04	  2.52504265E+04	  1.63560675E+04	  7.96128158E+03	  1.99973403E+03	  4.40492372E+02	  8.84728803E+05	  8.28090183E+05	  7.12932472E+05	  5.73086598E+05	  4.17396376E+05	  2.68902396E+05	  1.52688015E+05	  7.31113554E+04	  2.73919068E+04	  6.12991910E+03	  1.33170855E+03	 -2.48679071E-02	 -3.82617571E-04	  1.02883561E-03	 -1.02833770E-03	  3.76210848E-04	 -2.79938063E-04	  2.61815017E-04	 -1.30481278E-04	  7.33003227E-05	 -2.40746721E-05	  0.00000000E+00	 -4.59391328E-03	 -4.42024419E-04	  2.66786410E-04	  1.17629385E-05	  5.38133912E-04	 -4.84041293E-04	 -8.63061694E-06	  2.52075537E-04	 -1.80006606E-04	  7.28727695E-05	  0.00000000E+00	 -2.72377425E-03	 -5.49309008E+02	 -1.74685874E+03	 -5.83280711E+04	 -1.29466492E+05	 -1.25138385E+05	 -7.75201390E+04	 -2.98000694E+04	 -2.19343909E+03	  1.30595629E+03	  3.66688252E+01	  3.23914828E+07	  2.95254953E+07	  2.36865809E+07	  1.64908544E+07	  9.62435985E+06	  4.59498373E+06	  1.66388614E+06	  4.03394558E+05	  3.16474478E+04	 -6.27821572E+03	  2.48043758E+00	  1.78114153E+05	  1.78059104E+05	  1.50770217E+05	  3.34454653E+04	 -4.37448583E+04	 -5.59570354E+04	 -4.05763143E+04	 -1.76882209E+04	 -5.68477760E+03	 -1.14817158E+03	 -1.04489528E+02	  0.00000000E+00	  3.23902712E-03	  3.59744182E-02	  2.89850819E-01	  1.16542060E+00	  2.74067650E+00	  4.89004767E+00	  7.53262951E+00	  1.03749333E+01	  1.27089051E+01	  1.37958039E+01	  0.00000000E+00	 -8.41753951E-05	 -2.48733359E-03	 -4.07067306E-02	 -1.65821484E-01	 -3.66143677E-01	 -6.12188062E-01	 -8.74885238E-01	 -1.11826361E+00	 -1.29955491E+00	 -1.38249576E+00	  0.00000000E+00	  2.19605465E-06	 -1.30757474E-04	 -3.53862533E-03	 -3.27720396E-02	 -1.17843846E-01	 -2.77151626E-01	 -5.42925336E-01	 -9.21501599E-01	 -1.29680520E+00	 -1.48214387E+00	  0.00000000E+00	  1.57213264E-06	  9.53594548E-04	  5.89836300E-03	  1.10003538E-02	  1.32810206E-02	  1.40470456E-02	  1.18321587E-02	  6.26035759E-03	  2.10054313E-03	  1.80492099E-03	  0.00000000E+00	  1.40638268E-03	  8.21005682E-03	  3.86766747E-02	  8.45236099E-02	  1.22327396E-01	  1.66662062E-01	  2.26644352E-01	  2.96641456E-01	  3.34466339E-01	  3.39446522E-01	  0.00000000E+00	 -1.01214353E-05	 -1.75753666E-05	 -3.34285381E-03	 -1.33402085E-02	 -2.77748800E-02	 -4.90345750E-02	 -8.11047293E-02	 -1.19366564E-01	 -1.37954428E-01	 -1.44744974E-01
       0.000800	  1.37958039E+01	 -1.38249576E+00	 -1.48214387E+00	  1.80492097E-03	  3.39446522E-01	 -1.44744974E-01	  8.84728807E+05	 -4.80997829E-03	 -9.22754002E-04	 -5.26134589E-04	  3.23914828E+07	  1.78114129E+05	  8.84728807E+05	  8.28089364E+05	  7.12908445E+05	  5.72654844E+05	  4.15869666E+05	  2.66790950E+05	  1.50392629E+05	  7.10084099E+04	  2.60093042E+04	  5.73520360E+03	  1.24255979E+03	 -4.80997829E-03	  8.38229986E+00	  1.53208610E+01	  1.98054704E+03	  5.75425483E+03	  7.66448592E+03	  7.62253458E+03	  5.96280814E+03	  3.23274587E+03	  8.27291830E+02	  1.88306432E+02	 -9.22754002E-04	  1.16461116E+03	  5.85313519E+03	  2.21530283E+04	  3.52000527E+04	  3.27466562E+04	  2.52504265E+04	  1.63560673E+04	  7.96128172E+03	  1.99973398E+03	  4.40492372E+02	  8.84728807E+05	  8.28090183E+05	  7.12932472E+05	  5.73086599E+05	  4.17396376E+05	  2.68902397E+05	  1.52688015E+05	  7.31113554E+04	  2.73919068E+04	  6.12991910E+03	  1.33170855E+03	 -4.80997829E-03	 -7.40050914E-05	  1.99011973E-04	 -1.98840956E-04	  7.26870316E-05	 -5.43640879E-05	  5.06569414E-05	 -2.51941062E-05	  1.41908414E-05	 -4.64810611E-06	  0.00000000E+00	 -9.22754002E-04	 -8.89826293E-05	  3.64349215E-05	 -7.85245151E-06	  1.08891114E-04	 -7.83831524E-05	 -2.04057363E-06	  4.63716544E-05	 -3.51810015E-05	  1.36891938E-05	  0.00000000E+00	 -5.26134589E-04	 -5.49295786E+02	 -1.74688389E+03	 -5.83280456E+04	 -1.29466512E+05	 -1.25138367E+05	 -7.75201543E+04	 -2.98000591E+04	 -2.19344564E+03	  1.30596019E+03	  3.66667535E+01	  3.23914828E+07	  2.95254953E+07	  2.36865809E+07	  1.64908544E+07	  9.62435986E+06	  4.59498373E+06	  1.66388614E+06	  4.03394556E+05	  3.16474490E+04	 -6.27821621E+03	  2.48047271E+00	  1.78114129E+05	  1.78059100E+05	  1.50770220E+05	  3.34454643E+04	 -4.37448584E+04	 -5.59570349E+04	 -4.05763150E+04	 -1.76882200E+04	 -5.68477849E+03	 -1.14817082E+03	 -1.04490018E+02	  0.00000000E+00	  3.23902712E-03	  3.59744182E-02	  2.89850819E-01	  1.16542060E+00	  2.74067650E+00	  4.89004767E+00	  7.53262951E+00	  1.03749333E+01	  1.27089051E+01	  1.37958039E+01	  0.00000000E+00	 -8.41753951E-05	 -2.48733359E-03	 -4.07067306E-02	 -1.65821484E-01	 -3.66143677E-01	 -6.12188062E-01	 -8.74885238E-01	 -1.11826361E+00	 -1.29955491E+00	 -1.38249576E+00	  0.00000000E+00	  2.19605467E-06	 -1.30757474E-04	 -3.53862533E-03	 -3.27720396E-02	 -1.17843846E-01	 -2.77151626E-01	 -5.42925336E-01	 -9.21501599E-01	 -1.29680520E+00	 -1.48214387E+00	  0.00000000E+00	  1.57213276E-06	  9.53594547E-04	  5.89836300E-03	  1.10003538E-02	  1.32810206E-02	  1.40470456E-02	  1.18321587E-02	  6.26035759E-03	  2.10054315E-03	  1.80492097E-03	  0.00000000E+00	  1.40638268E-03	  8.21005682E-03	  3.86766747E-02	  8.45236099E-02	  1.22327396E-01	  1.66662062E-01	  2.26644352E-01	  2.96641456E-01	  3.34466339E-01	  3.39446522E-01	  0.00000000E+00	 -1.01214357E-05	 -1.75753655E-05	 -3.34285382E-03	 -1.33402085E-02	 -2.77748800E-02	 -4.90345750E-02	 -8.11047293E-02	 -1.19366564E-01	 -1.37954428E-01	 -1.44744974E-01
       0.001000	  1.37958039E+01	 -1.38249576E+00	 -1.48214387E+00	  1.80492096E-03	  3.39446522E-01	 -1.44744974E-01	  8.84728807E+05	 -9.30381879E-04	 -1.69157383E-04	 -1.02434223E-04	  3.23914828E+07	  1.78114125E+05	  8.84728807E+05	  8.28089364E+05	  7.12908445E+05	  5.72654844E+05	  4.15869666E+05	  2.66790950E+05	  1.50392629E+05	  7.10084099E+04	  2.60093042E+04	  5.73520361E+03	  1.24255979E+03	 -9.30381879E-04	  8.38235961E+00	  1.53207003E+01	  1.98054720E+03	  5.75425477E+03	  7.66448597E+03	  7.62253454E+03	  5.96280816E+03	  3.23274586E+03	  8.27291833E+02	  1.88306432E+02	 -1.69157383E-04	  1.16461124E+03	  5.85313518E+03	  2.21530283E+04	  3.52000526E+04	  3.27466562E+04	  2.52504265E+04	  1.63560673E+04	  7.96128175E+03	  1.99973397E+03	  4.40492372E+02	  8.84728807E+05	  8.28090183E+05	  7.12932472E+05	  5.73086599E+05	  4.17396376E+05	  2.68902397E+05	  1.52688015E+05	  7.31113554E+04	  2.73919068E+04	  6.12991909E+03	  1.33170855E+03	 -9.30381879E-04	 -1.43106373E-05	  3.84749612E-05	 -3.84448025E-05	  1.41654954E-05	 -1.04401979E-05	  9.77145524E-06	 -4.85919636E-06	  2.73039425E-06	 -9.09167289E-07	  0.00000000E+00	 -1.69157383E-04	 -1.14103072E-05	  1.78981886E-05	 -7.24752653E-07	  1.18600197E-05	 -2.06178697E-05	  1.02063842E-06	  8.40361650E-06	 -6.26900859E-06	  3.06591914E-06	  0.00000000E+00	 -1.02434223E-04	 -5.49293228E+02	 -1.74688876E+03	 -5.83280406E+04	 -1.29466516E+05	 -1.25138363E+05	 -7.75201572E+04	 -2.98000571E+04	 -2.19344690E+03	  1.30596094E+03	  3.66663535E+01	  3.23914828E+07	  2.95254953E+07	  2.36865809E+07	  1.64908544E+07	  9.62435986E+06	  4.59498373E+06	  1.66388614E+06	  4.03394555E+05	  3.16474492E+04	 -6.27821631E+03	  2.48047962E+00	  1.78114125E+05	  1.78059099E+05	  1.50770221E+05	  3.34454641E+04	 -4.37448585E+04	 -5.59570348E+04	 -4.05763151E+04	 -1.76882199E+04	 -5.68477866E+03	 -1.14817068E+03	 -1.04490112E+02	  0.00000000E+00	  3.23902712E-03	  3.59744182E-02	  2.89850819E-01	  1.16542060E+00	  2.74067650E+00	  4.89004767E+00	  7.53262951E+00	  1.03749333E+01	  1.27089051E+01	  1.37958039E+01	  0.00000000E+00	 -8.41753950E-05	 -2.48733359E-03	 -4.07067306E-02	 -1.65821484E-01	 -3.66143677E-01	 -6.12188062E-01	 -8.74885238E-01	 -1.11826361E+00	 -1.29955491E+00	 -1.38249576E+00	  0.00000000E+00	  2.19605468E-06	 -1.30757474E-04	 -3.53862533E-03	 -3.27720396E-02	 -1.17843846E-01	 -2.77151626E-01	 -5.42925336E-01	 -9.21501599E-01	 -1.29680520E+00	 -1.48214387E+00	  0.00000000E+00	  1.57213278E-06	  9.53594547E-04	  5.89836300E-03	  1.10003538E-02	  1.32810206E-02	  1.40470456E-02	  1.18321587E-02	  6.26035759E-03	  2.10054316E-03	  1.80492096E-03	  0.00000000E+00	  1.40638268E-03	  8.21005682E-03	  3.86766747E-02	  8.45236099E-02	  1.22327396E-01	  1.66662062E-01	  2.26644352E-01	  2.96641456E-01	  3.34466339E-01	  3.39446522E-01	  0.00000000E+00	 -1.01214357E-05	 -1.75753653E-05	 -3.34285382E-03	 -1.33402085E-02	 -2.77748800E-02	 -4.90345750E-02	 -8.11047293E-02	 -1.19366564E-01	 -1.37954427E-01	 -1.44744974E-01
       0.001200	  1.37958039E+01	 -1.38249576E+00	 -1.48214387E+00	  1.80492096E-03	  3.39446522E-01	 -1.44744974E-01	  8.84728807E+05	 -1.79904884E-04	 -3.36050553E-05	 -1.95572819E-05	  3.23914828E+07	  1.78114124E+05	  8.84728807E+05	  8.28089364E+05	  7.12908445E+05	  5.72654844E+05	  4.15869666E+05	  2.66790950E+05	  1.50392629E+05	  7.10084099E+04	  2.60093042E+04	  5.73520361E+03	  1.24255979E+03	 -1.79904884E-04	  8.38237116E+00	  1.53206692E+01	  1.98054723E+03	  5.75425476E+03	  7.66448598E+03	  7.62253453E+03	  5.96280816E+03	  3.23274586E+03	  8.27291834E+02	  1.88306432E+02	 -3.36050553E-05	  1.16461125E+03	  5.85313516E+03	  2.21530283E+04	  3.52000526E+04	  3.27466562E+04	  2.52504265E+04	  1.63560673E+04	  7.96128176E+03	  1.99973396E+03	  4.40492372E+02	  8.84728807E+05	  8.28090183E+05	  7.12932472E+05	  5.73086599E+05	  4.17396376E+05	  2.68902397E+05	  1.52688015E+05	  7.31113554E+04	  2.73919068E+04	  6.12991909E+03	  1.33170855E+03	 -1.79904884E-04	 -2.76965493E-06	  7.45006316E-06	 -7.41874117E-06	  2.64338102E-06	 -2.19347073E-06	  1.89437605E-06	 -9.30915025E-07	  5.21886998E-07	 -1.51954278E-07	  0.00000000E+00	 -3.36050553E-05	 -3.38216538E-06	  2.77593689E-06	 -2.84563796E-06	  9.01857732E-06	  8.20878324E-06	  3.01226597E-07	  9.28494175E-07	 -8.92761980E-07	 -3.46204853E-07	  0.00000000E+00	 -1.95572819E-05	 -5.49292733E+02	 -1.74688970E+03	 -5.83280397E+04	 -1.29466517E+05	 -1.25138362E+05	 -7.75201578E+04	 -2.98000567E+04	 -2.19344715E+03	  1.30596109E+03	  3.66662758E+01	  3.23914828E+07	  2.95254953E+07	  2.36865809E+07	  1.64908544E+07	  9.62435986E+06	  4.59498373E+06	  1.66388614E+06	  4.03394555E+05	  3.16474493E+04	 -6.27821633E+03	  2.48048091E+00	  1.78114124E+05	  1.78059099E+05	  1.50770221E+05	  3.34454641E+04	 -4.37448585E+04	 -5.59570348E+04	 -4.05763151E+04	 -1.76882198E+04	 -5.68477870E+03	 -1.14817065E+03	 -1.04490131E+02	  0.00000000E+00	  3.23902712E-03	  3.59744182E-02	  2.89850819E-01	  1.16542060E+00	  2.74067650E+00	  4.89004767E+00	  7.53262951E+00	  1.03749333E+01	  1.27089051E+01	  1.37958039E+01	  0.00000000E+00	 -8.41753950E-05	 -2.48733359E-03	 -4.07067306E-02	 -1.65821484E-01	 -3.66143677E-01	 -6.12188062E-01	 -8.74885238E-01	 -1.11826361E+00	 -1.29955491E+00	 -1.38249576E+00	  0.00000000E+00	  2.19605468E-06	 -1.30757474E-04	 -3.53862533E-03	 -3.27720396E-02	 -1.17843846E-01	 -2.77151626E-01	 -5.42925336E-01	 -9.21501599E-01	 -1.29680520E+00	 -1.48214387E+00	  0.00000000E+00	  1.57213279E-06	  9.53594547E-04	  5.89836300E-03	  1.10003538E-02	  1.32810206E-02	  1.40470456E-02	  1.18321587E-02	  6.26035759E-03	  2.10054316E-03	  1.80492096E-03	  0.00000000E+00	  1.40638268E-03	  8.21005682E-03	  3.86766747E-02	  8.45236099E-02	  1.22327396E-01	  1.66662062E-01	  2.26644352E-01	  2.96641456E-01	  3.34466339E-01	  3.39446522E-01	  0.00000000E+00	 -1.01214358E-05	 -1.75753653E-05	 -3.34285382E-03	 -1.33402085E-02	 -2.77748800E-02	 -4.90345750E-02	 -8.11047293E-02	 -1.19366564E-01	 -1.37954427E-01	 -1.44744974E-01
       0.001400	  1.37958039E+01	 -1.38249576E+00	 -1.48214387E+00	  1.80492096E-03	  3.39446522E-01	 -1.44744974E-01	  8.84728807E+05	 -3.48376809E-05	 -7.45531713E-06	 -3.65023913E-06	  3.23914828E+07	  1.78114124E+05	  8.84728807E+05	  8.28089364E+05	  7.12908445E+05	  5.72654844E+05	  4.15869666E+05	  2.66790950E+05	  1.50392629E+05	  7.10084099E+04	  2.60093042E+04	  5.73520361E+03	  1.24255979E+03	 -3.48376809E-05	  8.38237340E+00	  1.53206632E+01	  1.98054723E+03	  5.75425476E+03	  7.66448598E+03	  7.62253453E+03	  5.96280816E+03	  3.23274586E+03	  8.27291834E+02	  1.88306432E+02	 -7.45531713E-06	  1.16461125E+03	  5.85313516E+03	  2.21530283E+04	  3.52000526E+04	  3.27466562E+04	  2.52504265E+04	  1.63560673E+04	  7.96128176E+03	  1.99973396E+03	  4.40492372E+02	  8.84728807E+05	  8.28090183E+05	  7.12932472E+05	  5.73086599E+05	  4.17396376E+05	  2.68902397E+05	  1.52688015E+05	  7.31113554E+04	  2.73919068E+04	  6.12991909E+03	  1.33170855E+03	 -3.48376809E-05	 -5.37032128E-07	  1.43774846E-06	 -1.42201889E-06	  7.03161128E-07	 -2.31833184E-07	  3.02112273E-07	 -2.05410433E-07	  8.60428301E-08	 -6.34393556E-08	  0.00000000E+00	 -7.45531713E-06	 -1.21102129E-06	  3.20366057E-07	 -2.43241607E-06	 -1.36870044E-05	 -1.25246564E-05	  3.48214261E-06	  1.72355143E-06	  3.08232109E-07	  1.30186798E-06	  0.00000000E+00	 -3.65023913E-06	 -5.49292637E+02	 -1.74688988E+03	 -5.83280395E+04	 -1.29466517E+05	 -1.25138362E+05	 -7.75201579E+04	 -2.98000566E+04	 -2.19344719E+03	  1.30596111E+03	  3.66662611E+01	  3.23914828E+07	  2.95254953E+07	  2.36865809E+07	  1.64908544E+07	  9.62435986E+06	  4.59498373E+06	  1.66388614E+06	  4.03394555E+05	  3.16474493E+04	 -6.27821633E+03	  2.48048120E+00	  1.78114124E+05	  1.78059099E+05	  1.50770221E+05	  3.34454641E+04	 -4.37448585E+04	 -5.59570348E+04	 -4.05763151E+04	 -1.76882198E+04	 -5.68477870E+03	 -1.14817064E+03	 -1.04490134E+02	  0.00000000E+00	  3.23902712E-03	  3.59744182E-02	  2.89850819E-01	  1.16542060E+00	  2.74067650E+00	  4.89004767E+00	  7.53262951E+00	  1.03749333E+01	  1.27089051E+01	  1.37958039E+01	  0.00000000E+00	 -8.41753950E-05	 -2.48733359E-03	 -4.07067306E-02	 -1.65821484E-01	 -3.66143677E-01	 -6.12188062E-01	 -8.74885238E-01	 -1.11826361E+00	 -1.29955491E+00	 -1.38249576E+00	  0.00000000E+00	  2.19605468E-06	 -1.30757474E-04	 -3.53862533E-03	 -3.27720396E-02	 -1.17843846E-01	 -2.77151626E-01	 -5.42925336E-01	 -9.21501599E-01	 -1.29680520E+00	 -1.48214387E+00	  0.00000000E+00	  1.57213279E-06	  9.53594547E-04	  5.89836300E-03	  1.10003538E-02	  1.32810206E-02	  1.40470456E-02	  1.18321587E-02	  6.26035759E-03	  2.10054316E-03	  1.80492096E-03	  0.00000000E+00	  1.40638268E-03	  8.21005682E-03	  3.86766747E-02	  8.45236099E-02	  1.22327396E-01	  1.66662062E-01	  2.26644352E-01	  2.96641456E-01	  3.34466339E-01	  3.39446522E-01	  0.00000000E+00	 -1.01214358E-05	 -1.75753653E-05	 -3.34285382E-03	 -1.33402085E-02	 -2.77748800E-02	 -4.90345750E-02	 -8.11047293E-02	 -1.19366564E-01	 -1.37954427E-01	 -1.44744974E-01